                               Psi4 1.2.1 release

  ==> Input File <==

--------------------------------------------------------------------------
memory 5.0 Gb
molecule AlkEthOH_c1008_1 {
  0 1
  C     0.4020    -0.7274      0.7094
  C     2.5434     1.6212      2.9184
  C     1.6360    -0.1809      1.4096
  C     1.3154     1.0866      2.1991
  H    -0.0135     0.0088      0.0139
  H     0.6561    -1.6272      0.1405
  H    -0.3744    -0.9922      1.4342
  H     2.9450     0.8780      3.6147
  H     2.2869     2.5184      3.4903
  H     3.3312     1.8859      2.2059
  H     2.0363    -0.9484      2.0824
  H     2.4100     0.0313      0.6629
  H     0.9298     1.8588      1.5230
  H     0.5300     0.8786      2.9349
  units angstrom
}

set scf_type df
set guess sad
set df_basis_mp2 def2-sv_p_-ri

set basis def2-sv(p)
set freeze_core True
optimize('mp2')

--------------------------------------------------------------------------

    Molecular point group: c1
  Charge       = 0
  Multiplicity = 1
  Basis Set: DEF2-SV(P)
    Blend: DEF2-SV(P)
  Basis Set: (DEF2-SV(P) AUX)
    Blend: DEF2-SV_P_-JKFIT
  @DF-RHF Final Energy:  -157.16046122147941
    Total Energy =                       -157.1604612214794088
  Basis Set: DEF2-SV_P_-RI
    Blend: DEF2-SV_P_-RI
    Molecular point group: c1
  Basis Set: DEF2-SV(P)
    Blend: DEF2-SV(P)
  Basis Set: (DEF2-SV(P) AUX)
    Blend: DEF2-SV_P_-JKFIT
  Basis Set: (DEF2-SV(P) AUX)
    Blend: DEF2-SV_P_-JKFIT
	 Reference Energy          =    -157.1604612214794088 [Eh]
	 Singles Energy            =      -0.0000000000000000 [Eh]
	 Same-Spin Energy          =      -0.1186541064555622 [Eh]
	 Opposite-Spin Energy      =      -0.3956698062193916 [Eh]
	 Correlation Energy        =      -0.5143239126749538 [Eh]
	 Total Energy              =    -157.6747851341543765 [Eh]
	 SCS Total Energy          =    -157.6748163577611876 [Eh]
  @DF-RHF Final Energy:  -157.16032480950722
    Total Energy =                       -157.1603248095072161
  @DF-RHF Final Energy:  -157.16037538843761
    Total Energy =                       -157.1603753884376147
  @DF-RHF Final Energy:  -157.16040181520194
    Total Energy =                       -157.1604018152019364
  Charge       = 0
  Multiplicity = 1
  Basis Set: DEF2-SV(P)
    Blend: DEF2-SV(P)
  Basis Set: (DEF2-SV(P) AUX)
    Blend: DEF2-SV_P_-JKFIT

    Orbital Energies [Eh]
    ---------------------

    Doubly Occupied:

       1A    -11.219240     2A    -11.218704     3A    -11.214833
       4A    -11.214827     5A     -1.060928     6A     -0.969881
       7A     -0.849659     8A     -0.778163     9A     -0.639340
      10A     -0.586485    11A     -0.578442    12A     -0.568594
      13A     -0.516686    14A     -0.496195    15A     -0.474179
      16A     -0.462249    17A     -0.461495

  @DF-RHF Final Energy:  -157.16042156031699

   => Energetics <=

    Nuclear Repulsion Energy =            130.1724970757387894
    One-Electron Energy =                -468.0460335431773728
    Two-Electron Energy =                 180.7131149071216214
    Total Energy =                       -157.1604215603169905

  Dipole Moment: [D]
     X:    -0.0000      Y:    -0.0000      Z:     0.0000     Total:     0.0000

  Basis Set: DEF2-SV_P_-RI
    Blend: DEF2-SV_P_-RI
    Molecular point group: c1
  Basis Set: DEF2-SV(P)
    Blend: DEF2-SV(P)
  Basis Set: (DEF2-SV(P) AUX)
    Blend: DEF2-SV_P_-JKFIT
  Basis Set: (DEF2-SV(P) AUX)
    Blend: DEF2-SV_P_-JKFIT
	 Reference Energy          =    -157.1604215603169905 [Eh]
	 Singles Energy            =      -0.0000000000000000 [Eh]
	 Same-Spin Energy          =      -0.1186612280768739 [Eh]
	 Opposite-Spin Energy      =      -0.3969905630517881 [Eh]
	 Correlation Energy        =      -0.5156517911286620 [Eh]
	 Total Energy              =    -157.6760733514456660 [Eh]

	 ================> DF-SCS-MP2 Energies <==================
	-----------------------------------------------------------
	 SCS Same-Spin Scale       =       0.3333333333333333 [-]
	 SCS Opposite-Spin Scale   =       1.2000000000000000 [-]
	 SCS Same-Spin Energy      =      -0.0395537426922913 [Eh]
	 SCS Opposite-Spin Energy  =      -0.4763886756621458 [Eh]
	 SCS Correlation Energy    =      -0.5159424183544371 [Eh]
	 SCS Total Energy          =    -157.6763639786714180 [Eh]
	-----------------------------------------------------------

  -Total Gradient:
     Atom            X                  Y                   Z
    ------   -----------------  -----------------  -----------------
       1        0.000007862461    -0.000018852730    -0.000030478756
       2       -0.000004680068     0.000027992257     0.000017703683
       3       -0.000056049739     0.000002433170     0.000015861743
       4        0.000053804669    -0.000006314443    -0.000009224200
       5        0.000004373721    -0.000028013234     0.000025010896
       6       -0.000019060318     0.000040025729     0.000018095542
       7        0.000030932657     0.000010991788    -0.000026973275
       8       -0.000012298308     0.000028189429    -0.000029546022
       9        0.000019548383    -0.000038235343    -0.000021710942
      10       -0.000021828558    -0.000009131185     0.000027498470
      11        0.000009322014     0.000017921957    -0.000015395455
      12       -0.000010379873    -0.000013987001     0.000028606769
      13       -0.000009422589    -0.000020425389     0.000024740118
      14        0.000007875548     0.000007404996    -0.000024188571

  **** Optimization is complete! (in 5 steps) ****
    Final optimized geometry and variables:
    Molecular point group: c1

    Geometry (in Angstrom), charge = 0, multiplicity = 1:

    C           -1.085403802061    -1.186856476853    -1.117531796795
    C            1.085541701968     1.187203518702     1.117024719048
    C            0.144746086682    -0.633580307314    -0.401715408880
    C           -0.144894226066     0.633208999082     0.402258123492
    H           -1.497325245869    -0.444358371569    -1.824274764477
    H           -0.844749484991    -2.100294326400    -1.689384976007
    H           -1.881163053865    -1.440599030165    -0.394456551866
    H            1.498130318165     0.445118102444     1.823801384756
    H            0.844953370815     2.100798863858     1.688652539129
    H            1.880778798988     1.440910698818     0.393351083388
    H            0.557685087663    -1.404689418457     0.276650732731
    H            0.938822306995    -0.417177031759    -1.141916447719
    H           -0.558665177270     1.404028082948    -0.275914243972
    H           -0.938345000931     0.416551365949     1.143066921995

*** Psi4 exiting successfully. Buy a developer a beer!
